<?xml version="1.0" encoding="UTF-8"?>

<!-- generated on 2023-11-27 16:10:02 by Eclipse SUMO GUI Version 1.19.0
<configuration xmlns:xsi="http://www.w3.org/2001/XMLSchema-instance" xsi:noNamespaceSchemaLocation="http://sumo.dlr.de/xsd/sumoConfiguration.xsd">

    <input>
        <net-file value="sim_files/3_junction.net.xml"/>
        <route-files value="trips.trips.xml"/>
        <additional-files value="sim_files/loops.add.xml"/>
    </input>

    <output>
        <tripinfo-output value="static_3.trips.xml"/>
    </output>

    <report>
        <verbose value="true"/>
        <no-warnings value="true"/>
        <no-step-log value="true"/>
    </report>

    <traci_server>
        <remote-port value="49316"/>
    </traci_server>

</configuration>
-->

<tripinfos xmlns:xsi="http://www.w3.org/2001/XMLSchema-instance" xsi:noNamespaceSchemaLocation="http://sumo.dlr.de/xsd/tripinfo_file.xsd">
</tripinfos>
