<?xml version="1.0" encoding="UTF-8"?>

<!-- generated on 2023-11-28 17:32:03 by Eclipse SUMO GUI Version 1.19.0
<configuration xmlns:xsi="http://www.w3.org/2001/XMLSchema-instance" xsi:noNamespaceSchemaLocation="http://sumo.dlr.de/xsd/sumoConfiguration.xsd">

    <input>
        <net-file value="sim_files/3_junction.net.xml"/>
        <route-files value="trips.trips.xml"/>
        <additional-files value="sim_files/loops.add.xml"/>
    </input>

    <output>
        <tripinfo-output value="static_3.trips.xml"/>
    </output>

    <report>
        <verbose value="true"/>
        <no-warnings value="true"/>
        <no-step-log value="true"/>
    </report>

    <traci_server>
        <remote-port value="21400"/>
    </traci_server>

</configuration>
-->

<tripinfos xmlns:xsi="http://www.w3.org/2001/XMLSchema-instance" xsi:noNamespaceSchemaLocation="http://sumo.dlr.de/xsd/tripinfo_file.xsd">
    <tripinfo id="7" depart="26.00" departLane="n3k3_0" departPos="5.10" departSpeed="14.31" departDelay="0.80" arrival="108.00" arrivalLane="k2n2_0" arrivalPos="200.00" arrivalSpeed="14.31" duration="82.00" routeLength="612.96" waitingTime="23.00" waitingCount="1" stopTime="0.00" timeLoss="37.47" rerouteNo="1" devices="tripinfo_7 routing_7" vType="DEFAULT_VEHTYPE" speedFactor="1.03" vaporized=""/>
    <tripinfo id="10" depart="36.00" departLane="s2k2_0" departPos="5.10" departSpeed="11.54" departDelay="0.00" arrival="133.00" arrivalLane="k3e1_0" arrivalPos="200.00" arrivalSpeed="11.07" duration="97.00" routeLength="624.73" waitingTime="33.00" waitingCount="1" stopTime="0.00" timeLoss="41.94" rerouteNo="1" devices="tripinfo_10 routing_10" vType="DEFAULT_VEHTYPE" speedFactor="0.83" vaporized=""/>
    <tripinfo id="16" depart="58.00" departLane="n2k2_0" departPos="5.10" departSpeed="11.90" departDelay="0.40" arrival="135.00" arrivalLane="k3s3_0" arrivalPos="200.00" arrivalSpeed="10.98" duration="77.00" routeLength="623.28" waitingTime="14.00" waitingCount="1" stopTime="0.00" timeLoss="21.99" rerouteNo="1" devices="tripinfo_16 routing_16" vType="DEFAULT_VEHTYPE" speedFactor="0.86" vaporized=""/>
    <tripinfo id="32" depart="116.00" departLane="s3k3_0" departPos="5.10" departSpeed="14.03" departDelay="0.80" arrival="153.00" arrivalLane="k3n3_0" arrivalPos="200.00" arrivalSpeed="13.46" duration="37.00" routeLength="415.70" waitingTime="0.00" waitingCount="0" stopTime="0.00" timeLoss="6.84" rerouteNo="0" devices="tripinfo_32 routing_32" vType="DEFAULT_VEHTYPE" speedFactor="1.01" vaporized=""/>
    <tripinfo id="3" depart="11.00" departLane="s3k3_0" departPos="5.10" departSpeed="13.03" departDelay="0.20" arrival="193.00" arrivalLane="k1n1_0" arrivalPos="200.00" arrivalSpeed="12.81" duration="182.00" routeLength="844.08" waitingTime="96.00" waitingCount="3" stopTime="0.00" timeLoss="115.45" rerouteNo="1" devices="tripinfo_3 routing_3" vType="DEFAULT_VEHTYPE" speedFactor="0.94" vaporized=""/>
    <tripinfo id="17" depart="62.00" departLane="e1k3_0" departPos="5.10" departSpeed="15.15" departDelay="0.80" arrival="194.00" arrivalLane="k2n2_0" arrivalPos="200.00" arrivalSpeed="14.61" duration="132.00" routeLength="624.73" waitingTime="74.00" waitingCount="2" stopTime="0.00" timeLoss="89.28" rerouteNo="1" devices="tripinfo_17 routing_17" vType="DEFAULT_VEHTYPE" speedFactor="1.09" vaporized=""/>
    <tripinfo id="19" depart="69.00" departLane="s3k3_0" departPos="5.10" departSpeed="14.26" departDelay="0.60" arrival="197.00" arrivalLane="k2n2_0" arrivalPos="200.00" arrivalSpeed="13.54" duration="128.00" routeLength="623.28" waitingTime="67.00" waitingCount="2" stopTime="0.00" timeLoss="82.42" rerouteNo="1" devices="tripinfo_19 routing_19" vType="DEFAULT_VEHTYPE" speedFactor="1.03" vaporized=""/>
    <tripinfo id="14" depart="51.00" departLane="s3k3_0" departPos="5.10" departSpeed="12.31" departDelay="0.60" arrival="201.00" arrivalLane="k2s2_1" arrivalPos="200.00" arrivalSpeed="12.15" duration="150.00" routeLength="633.60" waitingTime="84.00" waitingCount="2" stopTime="0.00" timeLoss="96.51" rerouteNo="1" devices="tripinfo_14 routing_14" vType="DEFAULT_VEHTYPE" speedFactor="0.89" vaporized=""/>
    <tripinfo id="27" depart="98.00" departLane="n3k3_0" departPos="5.10" departSpeed="13.00" departDelay="0.80" arrival="203.00" arrivalLane="k2s2_1" arrivalPos="200.00" arrivalSpeed="11.92" duration="105.00" routeLength="623.28" waitingTime="39.00" waitingCount="1" stopTime="0.00" timeLoss="55.17" rerouteNo="1" devices="tripinfo_27 routing_27" vType="DEFAULT_VEHTYPE" speedFactor="0.94" vaporized=""/>
    <tripinfo id="40" depart="144.00" departLane="n2k2_0" departPos="5.10" departSpeed="11.47" departDelay="0.00" arrival="205.00" arrivalLane="k1w1_0" arrivalPos="200.00" arrivalSpeed="10.64" duration="61.00" routeLength="624.73" waitingTime="0.00" waitingCount="0" stopTime="0.00" timeLoss="4.85" rerouteNo="1" devices="tripinfo_40 routing_40" vType="DEFAULT_VEHTYPE" speedFactor="0.83" vaporized=""/>
    <tripinfo id="30" depart="108.00" departLane="w1k1_0" departPos="5.10" departSpeed="16.09" departDelay="0.00" arrival="216.00" arrivalLane="k2s2_0" arrivalPos="200.00" arrivalSpeed="15.50" duration="108.00" routeLength="624.73" waitingTime="60.00" waitingCount="1" stopTime="0.00" timeLoss="68.00" rerouteNo="1" devices="tripinfo_30 routing_30" vType="DEFAULT_VEHTYPE" speedFactor="1.16" vaporized=""/>
    <tripinfo id="2" depart="8.00" departLane="s1k1_0" departPos="5.10" departSpeed="14.72" departDelay="0.80" arrival="217.00" arrivalLane="k3e1_0" arrivalPos="200.00" arrivalSpeed="14.34" duration="209.00" routeLength="845.53" waitingTime="132.00" waitingCount="3" stopTime="0.00" timeLoss="150.57" rerouteNo="1" devices="tripinfo_2 routing_2" vType="DEFAULT_VEHTYPE" speedFactor="1.06" vaporized=""/>
    <tripinfo id="4" depart="15.00" departLane="n1k1_0" departPos="5.10" departSpeed="14.03" departDelay="0.60" arrival="218.00" arrivalLane="k3e1_0" arrivalPos="200.00" arrivalSpeed="13.62" duration="203.00" routeLength="855.85" waitingTime="119.00" waitingCount="3" stopTime="0.00" timeLoss="140.92" rerouteNo="1" devices="tripinfo_4 routing_4" vType="DEFAULT_VEHTYPE" speedFactor="1.01" vaporized=""/>
    <tripinfo id="31" depart="112.00" departLane="n2k2_0" departPos="5.10" departSpeed="14.14" departDelay="0.40" arrival="220.00" arrivalLane="k3e1_1" arrivalPos="200.00" arrivalSpeed="13.54" duration="108.00" routeLength="635.05" waitingTime="47.00" waitingCount="2" stopTime="0.00" timeLoss="62.36" rerouteNo="1" devices="tripinfo_31 routing_31" vType="DEFAULT_VEHTYPE" speedFactor="1.02" vaporized=""/>
    <tripinfo id="15" depart="54.00" departLane="s2k2_0" departPos="5.10" departSpeed="13.03" departDelay="0.00" arrival="221.00" arrivalLane="k3e1_0" arrivalPos="200.00" arrivalSpeed="12.07" duration="167.00" routeLength="624.73" waitingTime="104.00" waitingCount="2" stopTime="0.00" timeLoss="117.91" rerouteNo="1" devices="tripinfo_15 routing_15" vType="DEFAULT_VEHTYPE" speedFactor="0.94" vaporized=""/>
    <tripinfo id="57" depart="206.00" departLane="s3k3_0" departPos="5.10" departSpeed="15.31" departDelay="0.80" arrival="239.00" arrivalLane="k3n3_0" arrivalPos="200.00" arrivalSpeed="14.51" duration="33.00" routeLength="415.70" waitingTime="0.00" waitingCount="0" stopTime="0.00" timeLoss="5.64" rerouteNo="0" devices="tripinfo_57 routing_57" vType="DEFAULT_VEHTYPE" speedFactor="1.10" vaporized=""/>
    <tripinfo id="60" depart="216.00" departLane="s2k2_0" departPos="5.10" departSpeed="14.31" departDelay="0.00" arrival="247.00" arrivalLane="k2n2_0" arrivalPos="200.00" arrivalSpeed="13.66" duration="31.00" routeLength="415.70" waitingTime="0.00" waitingCount="0" stopTime="0.00" timeLoss="1.60" rerouteNo="0" devices="tripinfo_60 routing_60" vType="DEFAULT_VEHTYPE" speedFactor="1.03" vaporized=""/>
    <tripinfo id="24" depart="87.00" departLane="n3k3_0" departPos="5.10" departSpeed="12.87" departDelay="0.60" arrival="266.00" arrivalLane="k2k1_0" arrivalPos="200.00" arrivalSpeed="8.78" duration="179.00" routeLength="624.73" waitingTime="108.00" waitingCount="3" stopTime="0.00" timeLoss="129.43" rerouteNo="1" devices="tripinfo_24 routing_24" vType="DEFAULT_VEHTYPE" speedFactor="0.93" vaporized=""/>
    <tripinfo id="37" depart="134.00" departLane="n3k3_0" departPos="5.10" departSpeed="12.36" departDelay="0.80" arrival="268.00" arrivalLane="k2k1_1" arrivalPos="200.00" arrivalSpeed="8.97" duration="134.00" routeLength="624.73" waitingTime="61.00" waitingCount="2" stopTime="0.00" timeLoss="82.15" rerouteNo="1" devices="tripinfo_37 routing_37" vType="DEFAULT_VEHTYPE" speedFactor="0.89" vaporized=""/>
    <tripinfo id="11" depart="40.00" departLane="e1k3_0" departPos="5.10" departSpeed="14.53" departDelay="0.40" arrival="277.00" arrivalLane="k1n1_0" arrivalPos="200.00" arrivalSpeed="14.35" duration="237.00" routeLength="845.53" waitingTime="153.00" waitingCount="4" stopTime="0.00" timeLoss="177.94" rerouteNo="1" devices="tripinfo_11 routing_11" vType="DEFAULT_VEHTYPE" speedFactor="1.05" vaporized=""/>
    <tripinfo id="6" depart="22.00" departLane="e1k3_0" departPos="5.10" departSpeed="15.04" departDelay="0.40" arrival="278.00" arrivalLane="k1s1_1" arrivalPos="200.00" arrivalSpeed="14.88" duration="256.00" routeLength="855.85" waitingTime="178.00" waitingCount="3" stopTime="0.00" timeLoss="197.97" rerouteNo="1" devices="tripinfo_6 routing_6" vType="DEFAULT_VEHTYPE" speedFactor="1.08" vaporized=""/>
    <tripinfo id="47" depart="170.00" departLane="e1k3_0" departPos="5.10" departSpeed="16.37" departDelay="0.80" arrival="279.00" arrivalLane="k2k1_0" arrivalPos="200.00" arrivalSpeed="16.14" duration="109.00" routeLength="636.50" waitingTime="57.00" waitingCount="1" stopTime="0.00" timeLoss="69.51" rerouteNo="1" devices="tripinfo_47 routing_47" vType="DEFAULT_VEHTYPE" speedFactor="1.18" vaporized=""/>
    <tripinfo id="21" depart="76.00" departLane="e1k3_0" departPos="5.10" departSpeed="15.60" departDelay="0.40" arrival="280.00" arrivalLane="k1w1_1" arrivalPos="200.00" arrivalSpeed="15.24" duration="204.00" routeLength="857.30" waitingTime="127.00" waitingCount="2" stopTime="0.00" timeLoss="148.33" rerouteNo="1" devices="tripinfo_21 routing_21" vType="DEFAULT_VEHTYPE" speedFactor="1.12" vaporized=""/>
    <tripinfo id="63" depart="227.00" departLane="e1k3_0" departPos="5.10" departSpeed="14.42" departDelay="0.20" arrival="280.00" arrivalLane="k3s3_1" arrivalPos="200.00" arrivalSpeed="13.76" duration="53.00" routeLength="414.25" waitingTime="16.00" waitingCount="1" stopTime="0.00" timeLoss="23.58" rerouteNo="0" devices="tripinfo_63 routing_63" vType="DEFAULT_VEHTYPE" speedFactor="1.04" vaporized=""/>
    <tripinfo id="36" depart="130.00" departLane="s3k3_0" departPos="5.10" departSpeed="13.54" departDelay="0.40" arrival="282.00" arrivalLane="k1w1_0" arrivalPos="200.00" arrivalSpeed="13.03" duration="152.00" routeLength="855.85" waitingTime="67.00" waitingCount="2" stopTime="0.00" timeLoss="87.31" rerouteNo="1" devices="tripinfo_36 routing_36" vType="DEFAULT_VEHTYPE" speedFactor="0.97" vaporized=""/>
    <tripinfo id="68" depart="245.00" departLane="e1k3_0" departPos="5.10" departSpeed="13.85" departDelay="0.20" arrival="283.00" arrivalLane="k3n3_0" arrivalPos="200.00" arrivalSpeed="13.17" duration="38.00" routeLength="403.93" waitingTime="0.00" waitingCount="0" stopTime="0.00" timeLoss="7.27" rerouteNo="0" devices="tripinfo_68 routing_68" vType="DEFAULT_VEHTYPE" speedFactor="1.00" vaporized=""/>
    <tripinfo id="22" depart="80.00" departLane="e1k3_0" departPos="5.10" departSpeed="13.77" departDelay="0.80" arrival="284.00" arrivalLane="k1s1_1" arrivalPos="200.00" arrivalSpeed="13.71" duration="204.00" routeLength="855.85" waitingTime="124.00" waitingCount="2" stopTime="0.00" timeLoss="140.42" rerouteNo="1" devices="tripinfo_22 routing_22" vType="DEFAULT_VEHTYPE" speedFactor="0.99" vaporized=""/>
    <tripinfo id="56" depart="202.00" departLane="n2k2_0" departPos="5.10" departSpeed="16.39" departDelay="0.40" arrival="285.00" arrivalLane="k1s1_1" arrivalPos="200.00" arrivalSpeed="16.26" duration="83.00" routeLength="623.28" waitingTime="28.00" waitingCount="2" stopTime="0.00" timeLoss="43.91" rerouteNo="1" devices="tripinfo_56 routing_56" vType="DEFAULT_VEHTYPE" speedFactor="1.18" vaporized=""/>
    <tripinfo id="20" depart="72.00" departLane="s1k1_0" departPos="5.10" departSpeed="14.54" departDelay="0.00" arrival="304.00" arrivalLane="k3e1_0" arrivalPos="200.00" arrivalSpeed="14.10" duration="232.00" routeLength="845.53" waitingTime="154.00" waitingCount="3" stopTime="0.00" timeLoss="172.94" rerouteNo="1" devices="tripinfo_20 routing_20" vType="DEFAULT_VEHTYPE" speedFactor="1.05" vaporized=""/>
    <tripinfo id="45" depart="162.00" departLane="w1k1_0" departPos="5.10" departSpeed="15.72" departDelay="0.00" arrival="304.00" arrivalLane="k2s2_0" arrivalPos="200.00" arrivalSpeed="15.21" duration="142.00" routeLength="624.73" waitingTime="83.00" waitingCount="2" stopTime="0.00" timeLoss="101.19" rerouteNo="1" devices="tripinfo_45 routing_45" vType="DEFAULT_VEHTYPE" speedFactor="1.13" vaporized=""/>
    <tripinfo id="26" depart="94.00" departLane="w1k1_0" departPos="5.10" departSpeed="13.08" departDelay="0.40" arrival="305.00" arrivalLane="k3s3_0" arrivalPos="200.00" arrivalSpeed="12.38" duration="211.00" routeLength="845.53" waitingTime="130.00" waitingCount="2" stopTime="0.00" timeLoss="145.21" rerouteNo="1" devices="tripinfo_26 routing_26" vType="DEFAULT_VEHTYPE" speedFactor="0.94" vaporized=""/>
    <tripinfo id="43" depart="155.00" departLane="w1k1_0" departPos="5.10" departSpeed="12.74" departDelay="0.20" arrival="305.00" arrivalLane="k2n2_1" arrivalPos="200.00" arrivalSpeed="11.92" duration="150.00" routeLength="635.05" waitingTime="88.00" waitingCount="2" stopTime="0.00" timeLoss="99.24" rerouteNo="1" devices="tripinfo_43 routing_43" vType="DEFAULT_VEHTYPE" speedFactor="0.92" vaporized=""/>
    <tripinfo id="48" depart="173.00" departLane="w1k1_0" departPos="5.10" departSpeed="16.03" departDelay="0.20" arrival="307.00" arrivalLane="k2n2_1" arrivalPos="200.00" arrivalSpeed="14.98" duration="134.00" routeLength="635.05" waitingTime="73.00" waitingCount="2" stopTime="0.00" timeLoss="93.21" rerouteNo="1" devices="tripinfo_48 routing_48" vType="DEFAULT_VEHTYPE" speedFactor="1.15" vaporized=""/>
    <tripinfo id="46" depart="166.00" departLane="s2k2_0" departPos="5.10" departSpeed="12.94" departDelay="0.40" arrival="308.00" arrivalLane="k3e1_0" arrivalPos="200.00" arrivalSpeed="12.70" duration="142.00" routeLength="624.73" waitingTime="79.00" waitingCount="2" stopTime="0.00" timeLoss="92.27" rerouteNo="1" devices="tripinfo_46 routing_46" vType="DEFAULT_VEHTYPE" speedFactor="0.93" vaporized=""/>
    <tripinfo id="51" depart="184.00" departLane="s1k1_0" departPos="5.10" departSpeed="16.28" departDelay="0.40" arrival="308.00" arrivalLane="k2n2_1" arrivalPos="200.00" arrivalSpeed="15.60" duration="124.00" routeLength="623.28" waitingTime="70.00" waitingCount="2" stopTime="0.00" timeLoss="84.70" rerouteNo="1" devices="tripinfo_51 routing_51" vType="DEFAULT_VEHTYPE" speedFactor="1.17" vaporized=""/>
    <tripinfo id="75" depart="270.00" departLane="w1k1_0" departPos="5.10" departSpeed="15.22" departDelay="0.00" arrival="320.00" arrivalLane="k2s2_0" arrivalPos="200.00" arrivalSpeed="14.88" duration="50.00" routeLength="624.73" waitingTime="0.00" waitingCount="0" stopTime="0.00" timeLoss="7.08" rerouteNo="1" devices="tripinfo_75 routing_75" vType="DEFAULT_VEHTYPE" speedFactor="1.10" vaporized=""/>
    <tripinfo id="64" depart="231.00" departLane="s3k3_0" departPos="5.10" departSpeed="14.49" departDelay="0.60" arrival="327.00" arrivalLane="k3n3_0" arrivalPos="200.00" arrivalSpeed="13.92" duration="96.00" routeLength="415.70" waitingTime="60.00" waitingCount="1" stopTime="0.00" timeLoss="66.70" rerouteNo="0" devices="tripinfo_64 routing_64" vType="DEFAULT_VEHTYPE" speedFactor="1.04" vaporized=""/>
    <tripinfo id="61" depart="220.00" departLane="s2k2_0" departPos="5.10" departSpeed="13.29" departDelay="0.40" arrival="336.00" arrivalLane="k2n2_0" arrivalPos="200.00" arrivalSpeed="12.69" duration="116.00" routeLength="415.70" waitingTime="77.00" waitingCount="1" stopTime="0.00" timeLoss="84.29" rerouteNo="0" devices="tripinfo_61 routing_61" vType="DEFAULT_VEHTYPE" speedFactor="0.96" vaporized=""/>
    <tripinfo id="72" depart="260.00" departLane="n1k1_0" departPos="5.10" departSpeed="11.87" departDelay="0.80" arrival="348.00" arrivalLane="k1s1_0" arrivalPos="200.00" arrivalSpeed="10.87" duration="88.00" routeLength="415.70" waitingTime="45.00" waitingCount="1" stopTime="0.00" timeLoss="52.32" rerouteNo="0" devices="tripinfo_72 routing_72" vType="DEFAULT_VEHTYPE" speedFactor="0.85" vaporized=""/>
    <tripinfo id="55" depart="198.00" departLane="s3k3_0" departPos="5.10" departSpeed="13.52" departDelay="0.00" arrival="366.00" arrivalLane="k1w1_0" arrivalPos="200.00" arrivalSpeed="12.91" duration="168.00" routeLength="855.85" waitingTime="80.00" waitingCount="4" stopTime="0.00" timeLoss="103.22" rerouteNo="1" devices="tripinfo_55 routing_55" vType="DEFAULT_VEHTYPE" speedFactor="0.97" vaporized=""/>
    <tripinfo id="42" depart="152.00" departLane="e1k3_0" departPos="5.10" departSpeed="12.12" departDelay="0.80" arrival="367.00" arrivalLane="k1s1_1" arrivalPos="200.00" arrivalSpeed="11.17" duration="215.00" routeLength="855.85" waitingTime="123.00" waitingCount="3" stopTime="0.00" timeLoss="143.01" rerouteNo="1" devices="tripinfo_42 routing_42" vType="DEFAULT_VEHTYPE" speedFactor="0.87" vaporized=""/>
    <tripinfo id="59" depart="213.00" departLane="n3k3_0" departPos="5.10" departSpeed="12.51" departDelay="0.60" arrival="369.00" arrivalLane="k1n1_0" arrivalPos="200.00" arrivalSpeed="11.23" duration="156.00" routeLength="833.76" waitingTime="68.00" waitingCount="3" stopTime="0.00" timeLoss="88.15" rerouteNo="1" devices="tripinfo_59 routing_59" vType="DEFAULT_VEHTYPE" speedFactor="0.90" vaporized=""/>
    <tripinfo id="25" depart="90.00" departLane="e1k3_0" departPos="5.10" departSpeed="12.20" departDelay="0.00" arrival="370.00" arrivalLane="k1s1_1" arrivalPos="200.00" arrivalSpeed="11.65" duration="280.00" routeLength="855.85" waitingTime="184.00" waitingCount="3" stopTime="0.00" timeLoss="208.28" rerouteNo="1" devices="tripinfo_25 routing_25" vType="DEFAULT_VEHTYPE" speedFactor="0.88" vaporized=""/>
    <tripinfo id="69" depart="249.00" departLane="s2k2_0" departPos="5.10" departSpeed="12.51" departDelay="0.60" arrival="371.00" arrivalLane="k1n1_0" arrivalPos="200.00" arrivalSpeed="12.12" duration="122.00" routeLength="623.28" waitingTime="57.00" waitingCount="2" stopTime="0.00" timeLoss="70.74" rerouteNo="1" devices="tripinfo_69 routing_69" vType="DEFAULT_VEHTYPE" speedFactor="0.90" vaporized=""/>
    <tripinfo id="87" depart="314.00" departLane="s2k2_0" departPos="5.10" departSpeed="15.04" departDelay="0.80" arrival="371.00" arrivalLane="k1s1_1" arrivalPos="200.00" arrivalSpeed="14.34" duration="57.00" routeLength="633.60" waitingTime="1.00" waitingCount="1" stopTime="0.00" timeLoss="13.23" rerouteNo="1" devices="tripinfo_87 routing_87" vType="DEFAULT_VEHTYPE" speedFactor="1.08" vaporized=""/>
    <tripinfo id="78" depart="281.00" departLane="e1k3_0" departPos="5.10" departSpeed="13.83" departDelay="0.20" arrival="385.00" arrivalLane="k2s2_1" arrivalPos="200.00" arrivalSpeed="13.15" duration="104.00" routeLength="635.05" waitingTime="48.00" waitingCount="1" stopTime="0.00" timeLoss="57.14" rerouteNo="1" devices="tripinfo_78 routing_78" vType="DEFAULT_VEHTYPE" speedFactor="1.00" vaporized=""/>
    <tripinfo id="80" depart="288.00" departLane="e1k3_0" departPos="5.10" departSpeed="15.87" departDelay="0.00" arrival="387.00" arrivalLane="k2s2_1" arrivalPos="200.00" arrivalSpeed="15.21" duration="99.00" routeLength="635.05" waitingTime="44.00" waitingCount="1" stopTime="0.00" timeLoss="57.94" rerouteNo="1" devices="tripinfo_80 routing_80" vType="DEFAULT_VEHTYPE" speedFactor="1.14" vaporized=""/>
    <tripinfo id="44" depart="159.00" departLane="w1k1_0" departPos="5.10" departSpeed="13.18" departDelay="0.60" arrival="391.00" arrivalLane="k3e1_0" arrivalPos="200.00" arrivalSpeed="13.03" duration="232.00" routeLength="857.30" waitingTime="146.00" waitingCount="3" stopTime="0.00" timeLoss="166.83" rerouteNo="1" devices="tripinfo_44 routing_44" vType="DEFAULT_VEHTYPE" speedFactor="0.95" vaporized=""/>
    <tripinfo id="49" depart="177.00" departLane="w1k1_0" departPos="5.10" departSpeed="13.96" departDelay="0.60" arrival="391.00" arrivalLane="k3n3_1" arrivalPos="200.00" arrivalSpeed="13.52" duration="214.00" routeLength="855.85" waitingTime="129.00" waitingCount="3" stopTime="0.00" timeLoss="151.25" rerouteNo="1" devices="tripinfo_49 routing_49" vType="DEFAULT_VEHTYPE" speedFactor="1.01" vaporized=""/>
    <tripinfo id="67" depart="242.00" departLane="w1k1_0" departPos="5.10" departSpeed="15.11" departDelay="0.80" arrival="391.00" arrivalLane="k3e1_1" arrivalPos="200.00" arrivalSpeed="14.67" duration="149.00" routeLength="857.30" waitingTime="77.00" waitingCount="2" stopTime="0.00" timeLoss="92.06" rerouteNo="1" devices="tripinfo_67 routing_67" vType="DEFAULT_VEHTYPE" speedFactor="1.09" vaporized=""/>
    <tripinfo id="91" depart="328.00" departLane="w1k1_0" departPos="5.10" departSpeed="13.02" departDelay="0.40" arrival="392.00" arrivalLane="k1n1_1" arrivalPos="200.00" arrivalSpeed="11.77" duration="64.00" routeLength="414.25" waitingTime="24.00" waitingCount="1" stopTime="0.00" timeLoss="30.65" rerouteNo="0" devices="tripinfo_91 routing_91" vType="DEFAULT_VEHTYPE" speedFactor="0.94" vaporized=""/>
    <tripinfo id="53" depart="191.00" departLane="w1k1_0" departPos="5.10" departSpeed="13.82" departDelay="0.20" arrival="393.00" arrivalLane="k3e1_0" arrivalPos="200.00" arrivalSpeed="12.86" duration="202.00" routeLength="857.30" waitingTime="122.00" waitingCount="2" stopTime="0.00" timeLoss="139.49" rerouteNo="1" devices="tripinfo_53 routing_53" vType="DEFAULT_VEHTYPE" speedFactor="0.99" vaporized=""/>
    <tripinfo id="54" depart="195.00" departLane="n1k1_0" departPos="5.10" departSpeed="14.16" departDelay="0.60" arrival="394.00" arrivalLane="k3s3_0" arrivalPos="200.00" arrivalSpeed="12.99" duration="199.00" routeLength="844.08" waitingTime="116.00" waitingCount="3" stopTime="0.00" timeLoss="137.10" rerouteNo="1" devices="tripinfo_54 routing_54" vType="DEFAULT_VEHTYPE" speedFactor="1.02" vaporized=""/>
    <tripinfo id="73" depart="263.00" departLane="n2k2_0" departPos="5.10" departSpeed="16.24" departDelay="0.20" arrival="394.00" arrivalLane="k3e1_1" arrivalPos="200.00" arrivalSpeed="15.64" duration="131.00" routeLength="635.05" waitingTime="76.00" waitingCount="2" stopTime="0.00" timeLoss="91.35" rerouteNo="1" devices="tripinfo_73 routing_73" vType="DEFAULT_VEHTYPE" speedFactor="1.17" vaporized=""/>
    <tripinfo id="71" depart="256.00" departLane="w1k1_0" departPos="5.10" departSpeed="11.81" departDelay="0.40" arrival="398.00" arrivalLane="k3n3_1" arrivalPos="200.00" arrivalSpeed="11.64" duration="142.00" routeLength="855.85" waitingTime="53.00" waitingCount="2" stopTime="0.00" timeLoss="68.08" rerouteNo="1" devices="tripinfo_71 routing_71" vType="DEFAULT_VEHTYPE" speedFactor="0.85" vaporized=""/>
    <tripinfo id="70" depart="252.00" departLane="n1k1_0" departPos="5.10" departSpeed="12.18" departDelay="0.00" arrival="406.00" arrivalLane="k2n2_1" arrivalPos="200.00" arrivalSpeed="11.43" duration="154.00" routeLength="633.60" waitingTime="86.00" waitingCount="2" stopTime="0.00" timeLoss="100.49" rerouteNo="1" devices="tripinfo_70 routing_70" vType="DEFAULT_VEHTYPE" speedFactor="0.88" vaporized=""/>
    <tripinfo id="76" depart="274.00" departLane="n1k1_0" departPos="5.10" departSpeed="13.93" departDelay="0.40" arrival="408.00" arrivalLane="k2n2_1" arrivalPos="200.00" arrivalSpeed="13.17" duration="134.00" routeLength="633.60" waitingTime="70.00" waitingCount="2" stopTime="0.00" timeLoss="86.81" rerouteNo="1" devices="tripinfo_76 routing_76" vType="DEFAULT_VEHTYPE" speedFactor="1.00" vaporized=""/>
    <tripinfo id="85" depart="306.00" departLane="w1k1_0" departPos="5.10" departSpeed="13.47" departDelay="0.00" arrival="410.00" arrivalLane="k2n2_1" arrivalPos="200.00" arrivalSpeed="12.81" duration="104.00" routeLength="635.05" waitingTime="43.00" waitingCount="1" stopTime="0.00" timeLoss="55.72" rerouteNo="1" devices="tripinfo_85 routing_85" vType="DEFAULT_VEHTYPE" speedFactor="0.97" vaporized=""/>
    <tripinfo id="95" depart="342.00" departLane="n1k1_0" departPos="5.10" departSpeed="12.70" departDelay="0.00" arrival="431.00" arrivalLane="k1w1_0" arrivalPos="200.00" arrivalSpeed="11.62" duration="89.00" routeLength="403.93" waitingTime="51.00" waitingCount="1" stopTime="0.00" timeLoss="56.46" rerouteNo="0" devices="tripinfo_95 routing_95" vType="DEFAULT_VEHTYPE" speedFactor="0.91" vaporized=""/>
    <tripinfo id="102" depart="368.00" departLane="n1k1_0" departPos="5.10" departSpeed="13.06" departDelay="0.80" arrival="434.00" arrivalLane="k1s1_0" arrivalPos="200.00" arrivalSpeed="12.11" duration="66.00" routeLength="415.70" waitingTime="27.00" waitingCount="1" stopTime="0.00" timeLoss="33.53" rerouteNo="0" devices="tripinfo_102 routing_102" vType="DEFAULT_VEHTYPE" speedFactor="0.94" vaporized=""/>
    <tripinfo id="92" depart="332.00" departLane="e1k3_0" departPos="5.10" departSpeed="12.26" departDelay="0.80" arrival="438.00" arrivalLane="k2k1_0" arrivalPos="200.00" arrivalSpeed="8.85" duration="106.00" routeLength="636.50" waitingTime="40.00" waitingCount="1" stopTime="0.00" timeLoss="53.42" rerouteNo="1" devices="tripinfo_92 routing_92" vType="DEFAULT_VEHTYPE" speedFactor="0.88" vaporized=""/>
    <tripinfo id="62" depart="224.00" departLane="e1k3_0" departPos="5.10" departSpeed="15.17" departDelay="0.80" arrival="450.00" arrivalLane="k1w1_0" arrivalPos="200.00" arrivalSpeed="13.95" duration="226.00" routeLength="857.30" waitingTime="151.00" waitingCount="3" stopTime="0.00" timeLoss="168.59" rerouteNo="1" devices="tripinfo_62 routing_62" vType="DEFAULT_VEHTYPE" speedFactor="1.09" vaporized=""/>
    <tripinfo id="74" depart="267.00" departLane="e1k3_0" departPos="5.10" departSpeed="14.12" departDelay="0.60" arrival="451.00" arrivalLane="k1w1_0" arrivalPos="200.00" arrivalSpeed="13.61" duration="184.00" routeLength="857.30" waitingTime="108.00" waitingCount="2" stopTime="0.00" timeLoss="123.11" rerouteNo="1" devices="tripinfo_74 routing_74" vType="DEFAULT_VEHTYPE" speedFactor="1.02" vaporized=""/>
    <tripinfo id="84" depart="303.00" departLane="e1k3_0" departPos="5.10" departSpeed="14.22" departDelay="0.60" arrival="453.00" arrivalLane="k1n1_0" arrivalPos="200.00" arrivalSpeed="13.39" duration="150.00" routeLength="845.53" waitingTime="74.00" waitingCount="2" stopTime="0.00" timeLoss="88.83" rerouteNo="1" devices="tripinfo_84 routing_84" vType="DEFAULT_VEHTYPE" speedFactor="1.02" vaporized=""/>
    <tripinfo id="79" depart="285.00" departLane="e1k3_0" departPos="5.10" departSpeed="12.49" departDelay="0.60" arrival="456.00" arrivalLane="k1s1_1" arrivalPos="200.00" arrivalSpeed="11.44" duration="171.00" routeLength="855.85" waitingTime="84.00" waitingCount="2" stopTime="0.00" timeLoss="101.08" rerouteNo="1" devices="tripinfo_79 routing_79" vType="DEFAULT_VEHTYPE" speedFactor="0.90" vaporized=""/>
    <tripinfo id="112" depart="404.00" departLane="e1k3_0" departPos="5.10" departSpeed="13.99" departDelay="0.80" arrival="471.00" arrivalLane="k2s2_1" arrivalPos="200.00" arrivalSpeed="12.80" duration="67.00" routeLength="635.05" waitingTime="11.00" waitingCount="1" stopTime="0.00" timeLoss="20.37" rerouteNo="1" devices="tripinfo_112 routing_112" vType="DEFAULT_VEHTYPE" speedFactor="1.01" vaporized=""/>
    <tripinfo id="88" depart="317.00" departLane="w1k1_0" departPos="5.10" departSpeed="15.55" departDelay="0.20" arrival="475.00" arrivalLane="k3e1_1" arrivalPos="200.00" arrivalSpeed="15.51" duration="158.00" routeLength="857.30" waitingTime="83.00" waitingCount="2" stopTime="0.00" timeLoss="102.06" rerouteNo="1" devices="tripinfo_88 routing_88" vType="DEFAULT_VEHTYPE" speedFactor="1.12" vaporized=""/>
    <tripinfo id="89" depart="321.00" departLane="n1k1_0" departPos="5.10" departSpeed="14.11" departDelay="0.60" arrival="476.00" arrivalLane="k3e1_0" arrivalPos="200.00" arrivalSpeed="13.23" duration="155.00" routeLength="855.85" waitingTime="77.00" waitingCount="2" stopTime="0.00" timeLoss="92.74" rerouteNo="1" devices="tripinfo_89 routing_89" vType="DEFAULT_VEHTYPE" speedFactor="1.02" vaporized=""/>
    <tripinfo id="99" depart="357.00" departLane="w1k1_0" departPos="5.10" departSpeed="14.20" departDelay="0.60" arrival="478.00" arrivalLane="k3n3_1" arrivalPos="200.00" arrivalSpeed="14.03" duration="121.00" routeLength="855.85" waitingTime="46.00" waitingCount="1" stopTime="0.00" timeLoss="59.51" rerouteNo="1" devices="tripinfo_99 routing_99" vType="DEFAULT_VEHTYPE" speedFactor="1.02" vaporized=""/>
    <tripinfo id="100" depart="360.00" departLane="w1k1_0" departPos="5.10" departSpeed="14.21" departDelay="0.00" arrival="478.00" arrivalLane="k3s3_0" arrivalPos="200.00" arrivalSpeed="13.56" duration="118.00" routeLength="845.53" waitingTime="46.00" waitingCount="1" stopTime="0.00" timeLoss="56.91" rerouteNo="1" devices="tripinfo_100 routing_100" vType="DEFAULT_VEHTYPE" speedFactor="1.02" vaporized=""/>
    <tripinfo id="108" depart="389.00" departLane="n2k2_0" departPos="5.10" departSpeed="13.68" departDelay="0.20" arrival="480.00" arrivalLane="k3e1_1" arrivalPos="200.00" arrivalSpeed="12.99" duration="91.00" routeLength="635.05" waitingTime="30.00" waitingCount="2" stopTime="0.00" timeLoss="43.68" rerouteNo="1" devices="tripinfo_108 routing_108" vType="DEFAULT_VEHTYPE" speedFactor="0.98" vaporized=""/>